28783	0	*	1
28784	0	0.0/9435:99aa/91.73%	1
28785	0	0.0/9221:99aa/83.57%	1
11806	1	*	1
20267	2	*	1
20841	2	0.0/4756aa/99.89%	1
21282	2	0.0/4496aa/30.36%	1
21283	2	0.0/4496aa/30.35%	1
21284	2	0.0/4496aa/30.37%	1
21285	2	0.0/4496aa/30.35%	1
21286	2	0.0/4491aa/30.44%	1
21850	2	0.0/4497aa/30.19%	1
21851	2	0.0/4488aa/30.24%	1
21287	2	0.0/4483aa/30.46%	1
21288	2	0.0/4483aa/30.47%	1
21289	2	0.0/4483aa/30.46%	1
21290	2	0.0/4478aa/30.48%	1
21291	2	0.0/4478aa/30.49%	1
21852	2	0.0/4476aa/30.3%	1
21853	2	0.0/4471aa/30.33%	1
18842	3	*	1
28749	4	*	1
28750	4	0.0/4038aa/97.5%	1
28751	4	0.0/4023aa/97.47%	1
35642	5	*	1
35105	6	*	1
17637	7	*	1
7736	8	*	1
20490	9	*	1
6450	10	*	1
6449	10	0.0/2197:590:178aa/80.61%	1
23382	10	0.0/2197:591:190aa/84.76%	1
28321	11	*	1
21358	12	*	1
38199	6	0.0/2862aa/38.47%	1
38200	6	0.0/2862aa/38.47%	1
38201	6	0.0/2862aa/38.83%	1
6515	10	0.0/1982:591:190aa/72.76%	1
25161	13	*	1
17302	14	*	1
21608	13	0.0/2553:378aa/43.72%	1
35306	13	0.0/2559:376aa/44.29%	1
35379	13	0.0/2559:376aa/44.29%	1
16722	13	0.0/3024aa/41.67%	1
18786	13	0.0/2509:372aa/44.99%	1
24393	15	*	1
29796	13	0.0/2510:363aa/44.06%	1
37934	13	0.0/3015aa/45.83%	1
29149	16	*	1
16890	17	*	1
35469	18	*	1
11395	13	0.0/3016aa/48.81%	1
11508	13	0.0/3016aa/48.81%	1
27493	13	0.0/3019aa/45.42%	1
27821	13	0.0/3019aa/45.42%	1
24154	13	0.0/3026aa/46.3%	1
24155	13	0.0/3026aa/46.3%	1
24156	13	0.0/3026aa/46.3%	1
32152	13	0.0/3018aa/45.54%	1
32241	13	0.0/3018aa/45.54%	1
32277	13	0.0/3018aa/45.54%	1
22797	13	0.0/3041aa/45.55%	1
23230	13	0.0/3041aa/45.55%	1
21301	13	0.0/3037aa/45.1%	1
18972	13	0.0/2969aa/49.21%	1
37959	13	0.0/3014aa/44.62%	1
29150	16	0.0/2814aa/98.25%	1
13836	19	*	1
34847	13	0.0/3022aa/43.53%	1
34852	13	0.0/3022aa/43.53%	1
11817	20	*	1
34848	13	0.0/3015aa/44.01%	1
34853	13	0.0/3015aa/44.01%	1
11245	21	*	1
11246	21	0.0/2633:81aa/97.51%	1
34822	6	0.0/2768aa/53.68%	1
34823	6	0.0/2765aa/53.7%	1
34824	6	0.0/2765aa/53.7%	1
17761	22	*	1
17762	22	0.0/2762aa/100%	1
28403	23	*	1
28404	23	0.0/2712aa/98.39%	1
28405	23	0.0/2712aa/98.68%	1
28467	23	0.0/2723aa/52.6%	1
28747	23	0.0/2726aa/52.89%	1
28748	23	0.0/2723aa/52.89%	1
29859	24	*	1
34854	13	0.0/2717aa/37.96%	1
34825	6	0.0/2660aa/53.55%	1
34826	6	0.0/2660aa/53.47%	1
34827	6	0.0/2660aa/53.55%	1
34828	6	0.0/2660aa/53.36%	1
34829	6	0.0/2660aa/53.47%	1
34830	6	0.0/2660aa/53.55%	1
6429	25	*	1
30081	26	*	1
34831	6	0.0/2616aa/54.37%	1
8178	27	*	1
18742	28	*	1
6503	10	0.0/2197:318aa/87.94%	1
35117	29	*	1
17635	30	*	1
34783	31	*	1
11247	21	0.0/2367aa/92.38%	1
34849	13	0.0/2560aa/40.2%	1
11248	21	0.0/2367aa/92.71%	1
34832	6	0.0/2550aa/53.7%	1
17763	22	0.0/2524aa/98.46%	1
21827	21	0.0/2184aa/42.25%	1
21828	21	0.0/2185aa/42.39%	1
21766	21	0.0/2182aa/41.86%	1
18575	21	0.0/2187aa/43.07%	1
18861	21	0.0/2187aa/43.07%	1
18862	21	0.0/2187aa/43.07%	1
18758	32	*	1
18497	21	0.0/2212aa/40.93%	1
34855	13	0.0/2434aa/37.54%	1
28722	33	*	1
28723	33	0.0/2434aa/99.63%	1
34833	6	0.0/2402aa/54.22%	1
7816	34	*	1
22842	34	0.0/476:705:528aa/71.43%	1
28008	13	0.0/2439aa/46.7%	1
6818	35	*	1
6843	36	*	1
24792	37	*	1
28724	33	0.0/2280aa/96.95%	1
28725	33	0.0/2281aa/95.55%	1
8841	38	*	1
34803	39	*	1
34806	39	0.0/2254aa/100%	1
34804	39	0.0/2254aa/100%	1
9676	40	*	1
17405	21	0.0/1933aa/44.23%	1
35052	6	0.0/2229aa/53.41%	1
35053	6	0.0/2226aa/53.48%	1
35054	6	0.0/2226aa/53.48%	1
17676	41	*	1
17677	41	0.0/801:729:324aa/85.24%	1
10835	42	*	1
28726	33	0.0/2144aa/95.37%	1
28727	33	0.0/2143aa/96.62%	1
28728	33	0.0/2145aa/94.44%	1
10836	42	0.0/2173aa/100%	1
21911	43	*	1
35055	6	0.0/2122aa/53.37%	1
35056	6	0.0/2122aa/53.41%	1
35057	6	0.0/2122aa/53.32%	1
34805	39	0.0/2086aa/93.66%	1
19308	44	*	1
35058	6	0.0/2078aa/54.4%	1
35031	13	0.0/2161aa/34.48%	1
16283	45	*	1
35059	6	0.0/2015aa/53.02%	1
30108	46	*	1
28296	47	*	1
21901	43	0.0/1634aa/38.1%	1
18638	28	0.0/1908aa/75.79%	1
17498	48	*	1
17499	48	0.0/1925aa/99.42%	1
36004	49	*	1
10837	42	0.0/1690aa/74.15%	1
35060	6	0.0/1864aa/54.21%	1
11579	50	*	1
29815	51	*	1
29816	51	0.0/1187:130aa/73.24%	1
29817	51	0.0/1187:130aa/73.24%	1
29818	51	0.0/1187:130aa/73.24%	1
6771	52	*	1
30205	51	0.0/1187:130aa/73.65%	1
8348	53	*	1
37019	54	*	1
15743	55	*	1
10838	42	0.0/1437aa/71.36%	1
35129	29	0.0/1778aa/59.18%	1
19620	56	*	1
29785	57	*	1
10839	42	0.0/1412aa/73.5%	1
15979	58	*	1
37939	58	0.0/1573aa/59.26%	1
29091	59	*	1
28774	60	*	1
28775	60	0.0/1606aa/100%	1
30429	61	*	1
29092	59	0.0/1607aa/99.93%	1
29093	59	0.0/1607aa/100%	1
17585	48	0.0/1375aa/72.22%	1
29094	59	0.0/1568aa/98.43%	1
29095	59	0.0/1607aa/100%	1
28776	60	0.0/1606aa/98.14%	1
29096	59	0.0/1608aa/98.13%	1
17500	62	*	1
29142	63	*	1
16386	64	*	1
30191	65	*	1
28777	60	0.0/1423aa/91.88%	1
17329	66	*	1
37765	67	*	1
24722	68	*	1
30182	69	*	1
18496	70	*	1
35399	71	*	1
30430	72	*	1
16772	73	*	1
21914	74	*	1
17584	62	0.0/1450aa/98.63%	1
17629	62	0.0/1455aa/77.96%	1
30183	69	0.0/1522aa/96.01%	1
30184	69	0.0/1498aa/95.74%	1
18640	75	*	1
18641	75	0.0/1019:281aa/89.52%	1
28778	60	0.0/1345aa/91.37%	1
17408	59	0.0/1254:181aa/51.65%	1
35113	29	2.05e-162/1650aa/51.07%	1
35049	76	*	1
35115	21	0.0/1253aa/33.98%	1
17606	77	*	1
19504	78	*	1
18569	71	2.02e-149/270:382:149:107:91aa/57.07%	1
15982	71	2.10e-163/270:383:124:149:91aa/58.7%	1
21905	79	*	1
18750	75	0.0/1019:281aa/89.19%	1
18751	75	0.0/1019:281aa/89.25%	1
18642	75	0.0/1019:281aa/89.24%	1
18752	75	0.0/1019:281aa/89.23%	1
29784	80	*	1
17630	62	0.0/1369aa/77.91%	1
25830	81	*	1
18753	75	0.0/1019:281aa/88.96%	1
38124	80	0.0/1369aa/99.26%	1
8240	82	*	1
21767	21	0.0/1347aa/51.54%	1
17913	83	*	1
21908	74	6.82e-178/1399aa/43.13%	1
17528	83	0.0/1354aa/53.45%	1
17529	83	0.0/1350aa/53.3%	1
29842	84	*	1
11562	85	*	1
29910	86	*	1
30069	87	*	1
8217	88	*	1
29905	89	*	1
8148	90	*	1
30070	91	*	1
8549	92	*	1
29904	93	*	1
25104	94	*	1
30004	95	*	1
30071	96	*	1
16788	97	*	1
30231	84	0.0/1344aa/91.24%	1
11174	98	*	1
11175	98	0.0/1111:107aa/93.69%	1
29122	99	*	1
37035	54	0.0/1287aa/99.69%	1
17914	83	0.0/1280aa/98.98%	1
21348	100	*	1
21349	100	0.0/1273aa/100%	1
21350	100	0.0/1273aa/100%	1
21351	100	0.0/1273aa/100%	1
21352	100	0.0/1273aa/100%	1
13609	101	*	1
34843	102	*	1
29948	103	*	1
17634	104	*	1
33599	105	*	1
38346	106	*	1
29934	107	*	1
29804	108	*	1
18881	84	0.0/1057aa/43.98%	1
8698	109	*	1
10586	84	0.0/1094aa/49.71%	1
21258	84	0.0/1087aa/50.24%	1
11599	110	*	1
17587	104	1.58e-167/597:503aa/38.44%	1
36393	111	*	1
6474	10	0.0/1194aa/80.94%	1
6816	112	*	1
13776	113	*	1
11808	1	7.99e-127/1031aa/58.46%	1
18554	84	0.0/1061aa/39.51%	1
28271	114	*	1
13920	115	*	1
37764	116	*	1
16632	117	*	1
13921	118	*	1
24520	119	*	1
28469	120	*	1
21913	74	0.0/1134aa/93.93%	1
18110	121	*	1
37287	122	*	1
37767	123	*	1
28780	6	0.0/846aa/35.28%	1
19403	124	*	1
30043	125	*	1
17646	6	0.0/936aa/34.72%	1
17647	6	0.0/944aa/34.78%	1
24942	126	*	1
16906	127	*	1
29707	128	*	1
30423	129	*	1
13922	130	*	1
17920	131	*	1
6803	132	*	1
15747	133	*	1
11831	134	*	1
8241	135	*	1
17921	131	0.0/1114aa/99.9%	1
19007	136	*	1
19224	137	*	1
21880	43	1.44e-172/776aa/34.21%	1
17294	138	*	1
17371	139	*	1
10829	140	*	1
21899	74	1.06e-117/1184aa/39.52%	1
16768	141	*	1
17515	142	*	1
17580	142	0.0/1086aa/100%	1
17581	142	0.0/1086aa/100%	1
15924	39	3.13e-169/1081aa/35.94%	1
15925	39	3.13e-169/1081aa/35.94%	1
28713	33	0.0/1083aa/55.83%	1
17850	143	*	1
28714	33	0.0/1083aa/55.88%	1
14511	133	0.0/1111aa/99.06%	1
17582	138	0.0/1093aa/100%	1
21894	144	*	1
32621	145	*	1
32622	145	0.0/1068aa/100%	1
13744	80	0.0/1065aa/98.59%	1
34328	80	0.0/1064aa/95.96%	1
16804	127	0.0/1096aa/38.9%	1
16805	127	0.0/1096aa/39.18%	1
16806	127	0.0/1096aa/38.9%	1
16807	127	0.0/1096aa/38.71%	1
17447	146	*	1
19859	56	0.0/1011aa/61.25%	1
37965	142	0.0/738aa/32.19%	1
23435	135	0.0/1108aa/97.61%	1
27386	135	0.0/1108aa/93.52%	1
27672	135	0.0/1108aa/93.52%	1
27846	135	0.0/1108aa/93.52%	1
27847	135	0.0/1108aa/93.52%	1
27848	135	0.0/1108aa/93.52%	1
27980	135	0.0/1108aa/93.52%	1
31924	135	0.0/1108aa/93.8%	1
32245	135	0.0/1108aa/93.8%	1
23150	135	0.0/1108aa/97.71%	1
15161	133	0.0/1023aa/97.51%	1
16635	127	0.0/1050aa/36.07%	1
23148	135	0.0/637:405aa/98.08%	1
23149	135	0.0/637:405aa/98.08%	1
23151	135	0.0/637:405aa/98.08%	1
23152	135	0.0/637:405aa/98.08%	1
16822	28	3.87e-138/779aa/30.12%	1
20816	147	*	1
16798	148	*	1
21912	43	2.33e-179/1026aa/46.84%	1
17832	104	8.06e-113/598:327aa/34.54%	1
7539	149	*	1
28781	6	0.0/720aa/33.95%	1
28486	150	*	1
17922	131	0.0/993aa/97.03%	1
30029	151	*	1
37772	152	*	1
30067	153	*	1
30068	154	*	1
16872	48	9.33e-120/966aa/33.56%	1
16823	155	*	1
16824	155	0.0/1051aa/85.2%	1
28256	150	0.0/1017aa/99.9%	1
20388	156	*	1
20778	156	0.0/999aa/100%	1
38253	157	*	1
38254	157	0.0/999aa/100%	1
17654	158	*	1
17655	159	*	1
17656	160	*	1
9654	161	*	1
11320	161	0.0/972aa/98.18%	1
16836	162	*	1
11192	80	0.0/987aa/99.39%	1
10748	157	0.0/948aa/65.08%	1
37735	163	*	1
38164	142	0.0/738aa/34.45%	1
17366	164	*	1
6878	52	0.0/711aa/59.08%	1
9657	165	*	1
13745	166	*	1
11176	167	*	1
16758	155	0.0/1039aa/94.77%	1
17833	104	1.47e-112/598:280aa/34.01%	1
17851	143	9.75e-170/469:341aa/82.99%	1
20198	147	0.0/913aa/93.34%	1
20199	147	0.0/913aa/93.34%	1
24223	157	0.0/977aa/69.19%	1
30439	168	*	1
16564	169	*	1
16861	141	0.0/996aa/46.11%	1
10176	161	0.0/983aa/41.99%	1
32018	80	0.0/939aa/96.88%	1
32362	80	0.0/939aa/96.88%	1
32540	80	0.0/939aa/96.88%	1
16825	155	0.0/1004aa/91.98%	1
26076	170	*	1
35043	171	*	1
30115	172	*	1
16759	155	0.0/1042aa/91.71%	1
16770	127	0.0/934aa/35.75%	1
18806	173	*	1
28715	33	0.0/942aa/55.57%	1
28716	33	0.0/942aa/55.57%	1
28717	33	0.0/946aa/55.42%	1
8752	161	0.0/971aa/42.08%	1
20708	161	0.0/971aa/42.08%	1
21833	157	0.0/982aa/55.59%	1
16737	48	1.47e-110/878aa/32.34%	1
16873	48	4.74e-111/878aa/32.45%	1
16874	48	5.66e-108/879aa/31.81%	1
16875	48	5.73e-111/880aa/32.02%	1
16876	48	2.40e-113/880aa/32.02%	1
16877	48	3.23e-110/880aa/32.02%	1
16878	48	2.85e-116/878aa/31.92%	1
24374	174	*	1
10171	161	0.0/962aa/56.7%	1
15990	175	*	1
17852	143	3.94e-170/469:341aa/86.35%	1
21882	74	1.57e-105/1003aa/40.4%	1
35402	157	0.0/972aa/59.27%	1
38060	50	4.79e-152/743aa/31.08%	1
30431	176	*	1
17650	6	0.0/911aa/45.92%	1
30018	177	*	1
21907	74	0.0/939aa/43.19%	1
30006	178	*	1
32623	145	0.0/912aa/98.59%	1
32677	179	*	1
6791	180	*	1
6790	181	*	1
16826	155	0.0/1007aa/90.86%	1
18866	157	0.0/964aa/61.52%	1
11507	182	*	1
37813	80	0.0/913aa/95.21%	1
16648	183	*	1
30428	184	*	1
35011	185	*	1
16827	155	0.0/1003aa/95.73%	1
21760	174	0.0/784aa/38.62%	1
6847	186	*	1
13563	80	0.0/913aa/98.68%	1
27387	135	0.0/945aa/91.01%	1
29938	187	*	1
34846	80	0.0/912aa/98.46%	1
11177	188	*	1
28656	50	2.24e-165/729aa/33.4%	1
35740	189	*	1
17639	190	*	1
28611	191	*	1
17628	192	*	1
17853	193	*	1
21893	74	1.43e-162/923aa/41.44%	1
28612	191	0.0/901aa/99.88%	1
28613	191	0.0/901aa/99.66%	1
28614	191	0.0/901aa/99.66%	1
28615	191	0.0/901aa/99.88%	1
28616	191	0.0/901aa/99.77%	1
28617	191	0.0/901aa/99.88%	1
28618	191	0.0/901aa/99.88%	1
16828	155	0.0/1004aa/90.21%	1
9656	194	*	1
35375	174	0.0/774aa/38.46%	1
17869	104	1.19e-114/572:237aa/34.74%	1
38340	195	*	1
16808	196	*	1
16809	196	0.0/894aa/99.77%	1
28782	31	1.65e-151/661aa/32.13%	1
16879	127	6.33e-158/673aa/30.41%	1
16880	127	4.76e-162/673aa/30.3%	1
16881	127	1.66e-155/673aa/30.86%	1
16882	127	2.34e-154/673aa/30.63%	1
16883	127	1.22e-153/673aa/30.63%	1
9304	197	*	1
17662	104	0.0/899aa/43.93%	1
30174	198	*	1
16654	196	0.0/894aa/99.88%	1
15843	174	0.0/839aa/41.55%	1
16756	196	0.0/894aa/99.77%	1
32019	80	0.0/863aa/96.72%	1
32020	80	0.0/863aa/96.72%	1
32246	135	0.0/944aa/94.01%	1
21884	199	*	1
29952	200	*	1
20839	201	*	1
6792	181	0.0/899aa/59.72%	1
6780	181	0.0/896aa/60.13%	1
6781	181	0.0/895aa/57.4%	1
11652	202	*	1
16829	155	0.0/866aa/73.43%	1
16760	155	0.0/890aa/69.4%	1
28423	203	*	1
35026	50	2.56e-137/698aa/32.72%	1
35101	50	4.25e-137/698aa/32.72%	1
35138	204	*	1
6418	205	*	1
11477	80	0.0/836aa/94.6%	1
21910	74	0.0/902aa/51.83%	1
30442	206	*	1
30443	207	*	1
30444	208	*	1
30445	209	*	1
30446	210	*	1
30447	211	*	1
30448	212	*	1
30449	213	*	1
30450	214	*	1
30451	215	*	1
30452	216	*	1
30453	217	*	1
30454	218	*	1
8216	219	*	1
30455	220	*	1
30456	221	*	1
30457	222	*	1
30458	223	*	1
30459	224	*	1
30460	225	*	1
30461	226	*	1
30462	227	*	1
30463	228	*	1
6845	229	*	1
21888	74	5.39e-121/902aa/38.65%	1
6785	181	0.0/881aa/61.18%	1
6786	181	0.0/879aa/60.44%	1
6296	181	0.0/885aa/61.67%	1
6782	181	0.0/881aa/60.39%	1
30464	230	*	1
30465	231	*	1
30466	232	*	1
38325	233	*	1
24941	234	*	1
36999	235	*	1
6783	181	0.0/882aa/60.76%	1
30467	236	*	1
17559	237	*	1
30468	238	*	1
8242	239	*	1
37942	240	*	1
16630	241	*	1
30469	242	*	1
36195	243	*	1
30023	244	*	1
30470	245	*	1
30471	246	*	1
30472	247	*	1
30473	248	*	1
24325	249	*	1
21903	250	*	1
24750	251	*	1
30474	252	*	1
30475	253	*	1
16690	183	0.0/727aa/36.66%	1
16862	183	0.0/727aa/36.66%	1
34740	254	*	1
37750	255	*	1
15752	80	0.0/836aa/98.32%	1
24328	240	0.0/696aa/57.87%	1
37366	256	*	1
24408	80	0.0/837aa/97.13%	1
30476	257	*	1
30477	258	*	1
34840	80	0.0/836aa/98.44%	1
16884	127	3.05e-149/649aa/31.1%	1
16885	127	2.96e-149/649aa/31.1%	1
16886	127	6.09e-161/649aa/31.33%	1
16644	183	0.0/735aa/39.04%	1
30478	259	*	1
30479	260	*	1
16810	196	0.0/597aa/71.6%	1
35164	204	0.0/873aa/99.87%	1
30480	261	*	1
30481	262	*	1
16815	263	*	1
15076	264	*	1
16263	265	*	1
21274	266	*	1
30482	267	*	1
17841	268	*	1
18144	269	*	1
29020	270	*	1
24329	240	0.0/798aa/69%	1
30483	271	*	1
17862	48	1.27e-144/738aa/35.83%	1
27518	187	0.0/737aa/44.33%	1
32161	187	0.0/733aa/44.21%	1
28678	203	0.0/772aa/59.55%	1
32111	80	0.0/787aa/96.41%	1
23763	272	*	1
35314	187	0.0/728aa/43.53%	1
21257	187	0.0/731aa/42.64%	1
10764	187	0.0/727aa/43.44%	1
17954	273	*	1
37967	187	0.0/727aa/43%	1
35809	243	0.0/734aa/75.96%	1
17631	62	0.0/718aa/67.25%	1
17875	58	2.48e-51/767aa/30.11%	1
15657	264	0.0/826aa/99.87%	1
16907	274	*	1
31116	275	*	1
6825	276	*	1
30220	31	1.94e-145/556aa/33.75%	1
36539	277	*	1
36540	277	0.0/794aa/100%	1
36694	277	0.0/794aa/100%	1
36695	277	0.0/794aa/100%	1
12578	277	0.0/794aa/72.63%	1
12820	277	0.0/794aa/72.63%	1
16012	278	*	1
23764	272	0.0/817aa/98.48%	1
23765	272	0.0/817aa/98.48%	1
7716	279	*	1
17825	280	*	1
13120	277	0.0/794aa/72.56%	1
24291	281	*	1
24292	281	0.0/791aa/100%	1
6434	282	*	1
24914	283	*	1
32630	284	*	1
29939	285	*	1
32398	286	*	1
30172	287	*	1
6844	288	*	1
28654	289	*	1
35363	290	*	1
16863	183	6.83e-174/679aa/37.3%	1
16864	183	6.83e-174/679aa/37.3%	1
32298	284	0.0/635aa/55.51%	1
32414	284	0.0/635aa/55.51%	1
17867	291	*	1
23766	272	0.0/818aa/97.81%	1
23767	272	0.0/820aa/93.95%	1
23768	272	0.0/769aa/70.56%	1
37740	292	*	1
16672	162	1.22e-42/395:332aa/30.5%	1
21878	293	*	1
16837	294	*	1
30484	295	*	1
13808	296	*	1
35834	297	*	1
32119	298	*	1
16470	265	0.0/741aa/43.88%	1
19854	299	*	1
28619	191	0.0/745aa/97%	1
28620	191	0.0/745aa/95.83%	1
37731	300	*	1
13809	296	0.0/750aa/97.26%	1
30213	301	*	1
23289	302	*	1
23649	302	0.0/764aa/100%	1
20279	80	0.0/762aa/99.73%	1
20539	80	0.0/762aa/99.73%	1
20815	80	0.0/762aa/99.73%	1
20847	80	0.0/762aa/99.73%	1
32639	303	*	1
32640	303	0.0/763aa/100%	1
11527	80	0.0/760aa/98.16%	1
15077	264	0.0/826aa/96.58%	1
16625	80	0.0/761aa/95.79%	1
16740	80	0.0/761aa/95.79%	1
19079	80	0.0/761aa/99.86%	1
30044	304	*	1
34808	6	3.88e-180/542aa/37.36%	1
17863	48	1.43e-132/683aa/35.75%	1
27882	305	*	1
37811	306	*	1
6754	307	*	1
30214	301	0.0/765aa/100%	1
35368	187	8.18e-135/634aa/33.33%	1
23769	272	0.0/743aa/78.75%	1
30045	304	0.0/716aa/95.08%	1
23770	272	0.0/746aa/70.07%	1
32259	298	0.0/770aa/99.86%	1
32260	298	0.0/770aa/99.86%	1
23771	272	0.0/688aa/84.13%	1
14573	308	*	1
28791	309	*	1
28792	309	0.0/481:98aa/77.71%	1
37879	310	*	1
7891	305	1.49e-143/735aa/38.7%	1
17514	311	*	1
30046	304	0.0/716aa/96.23%	1
28655	289	0.0/534:38aa/77.08%	1
37733	312	*	1
23772	272	0.0/745aa/63.78%	1
27602	305	0.0/758aa/99.86%	1
31899	305	0.0/725aa/90.92%	1
9417	313	*	1
16856	314	*	1
17842	268	0.0/737aa/100%	1
17843	268	0.0/737aa/100%	1
6000	305	1.53e-144/726aa/38.09%	1
27619	80	0.0/711aa/96.18%	1
32021	80	0.0/711aa/95.91%	1
17474	268	0.0/735aa/45.83%	1
32261	298	0.0/770aa/99.86%	1
21705	39	3.98e-167/719aa/43.3%	1
21706	39	3.98e-167/719aa/43.3%	1
15655	264	0.0/712aa/82.07%	1
17893	315	*	1
28481	316	*	1
23820	317	*	1
26053	318	*	1
23773	272	0.0/733aa/64.42%	1
5476	319	*	1
20026	320	*	1
34362	321	*	1
23155	322	*	1
23694	322	0.0/725aa/100%	1
23813	322	0.0/725aa/100%	1
29937	323	*	1
35719	324	*	1
35422	187	1.49e-122/640aa/32.08%	1
24121	187	1.00e-136/642aa/34.02%	1
26142	170	0.0/438:110aa/65.13%	1
21694	187	2.40e-119/637aa/31.71%	1
11704	325	*	1
16839	326	*	1
29931	327	*	1
30432	69	0.0/622aa/78.38%	1
35398	187	2.00e-125/634aa/32.49%	1
10827	328	*	1
16857	329	*	1
30106	330	*	1
30215	301	0.0/792aa/88.81%	1
12539	112	0.0/669aa/63.72%	1
12967	112	0.0/669aa/63.72%	1
18785	187	7.56e-133/635aa/34.03%	1
17638	6	2.19e-159/696aa/43.33%	1
21695	187	5.95e-122/631aa/31.83%	1
23774	272	0.0/716aa/70.82%	1
33866	331	*	1
8485	328	0.0/679aa/50.56%	1
8488	328	0.0/679aa/50.84%	1
8599	328	0.0/678aa/50.42%	1
8644	328	0.0/679aa/50.98%	1
18566	187	4.84e-134/630aa/33.56%	1
18844	187	4.84e-134/630aa/33.56%	1
18845	187	4.84e-134/630aa/33.56%	1
23408	328	0.0/678aa/50.42%	1
37007	332	*	1
8547	305	1.07e-146/733aa/39.57%	1
8689	328	0.0/681aa/50.56%	1
8722	328	0.0/679aa/49.15%	1
23281	305	1.07e-146/733aa/39.57%	1
27698	328	0.0/681aa/50.56%	1
27917	328	0.0/681aa/50.56%	1
32072	328	0.0/684aa/49.71%	1
32506	328	0.0/684aa/49.71%	1
30010	333	*	1
8514	305	2.36e-149/735aa/41.66%	1
8602	305	7.31e-145/726aa/39.54%	1
23065	305	1.20e-144/733aa/39.68%	1
27509	305	3.15e-139/731aa/39.03%	1
30005	334	*	1
31114	335	*	1
15829	187	2.82e-151/640aa/36.26%	1
17448	66	0.0/644aa/91.21%	1
23775	272	0.0/737aa/66.71%	1
21203	305	2.18e-139/722aa/39.57%	1
21321	174	8.61e-175/610aa/43.82%	1
23730	336	*	1
23776	272	0.0/699aa/78.26%	1
16858	337	*	1
23777	272	0.0/715aa/80.79%	1
35523	187	2.48e-135/634aa/35.84%	1
17435	338	*	1
24187	305	5.38e-154/722aa/39.45%	1
30007	339	*	1
30177	340	*	1
30185	341	*	1
30186	342	*	1
30187	343	*	1
30188	344	*	1
30189	345	*	1
31103	346	*	1
6769	305	1.47e-139/723aa/40.08%	1
10931	187	3.80e-139/638aa/34.8%	1
16741	183	1.67e-155/563aa/35.37%	1
12797	347	*	1
23778	272	4.12e-157/679aa/48.14%	1
27918	284	2.02e-178/567aa/38.85%	1
29873	348	*	1
37745	349	*	1
18268	187	1.30e-130/624aa/33.9%	1
30216	301	0.0/776aa/95.27%	1
9383	350	*	1
23066	305	1.15e-146/733aa/40.31%	1
17870	351	*	1
6756	112	0.0/665aa/67.72%	1
16840	352	*	1
16859	353	*	1
24632	354	*	1
32242	355	*	1
16453	356	*	1
17896	357	*	1
25589	66	1.58e-55/742aa/34.63%	1
8981	358	*	1
28805	359	*	1
17884	360	*	1
18864	80	0.0/687aa/99.7%	1
32971	80	0.0/685aa/94.46%	1
14563	361	*	1
18306	362	*	1
18646	362	5.09e-170/420:181aa/87.6%	1
18647	362	5.09e-170/420:181aa/87.6%	1
18788	362	5.09e-170/420:181aa/87.6%	1
18789	362	5.09e-170/420:181aa/87.6%	1
18790	362	5.09e-170/420:181aa/87.6%	1
24326	249	0.0/686aa/99.7%	1
29911	363	*	1
10831	80	0.0/685aa/99.7%	1
11091	80	0.0/684aa/99.85%	1
11324	80	0.0/684aa/99.85%	1
11416	80	0.0/684aa/98.24%	1
16377	80	0.0/684aa/97.08%	1
16780	80	0.0/685aa/95.76%	1
16781	80	0.0/685aa/95.76%	1
16782	80	0.0/685aa/95.76%	1
16891	80	0.0/685aa/95.76%	1
17361	80	0.0/684aa/99.85%	1
19080	80	0.0/685aa/99.7%	1
19081	80	0.0/685aa/99.7%	1
19082	80	0.0/685aa/99.7%	1
19083	80	0.0/685aa/99.7%	1
23457	80	0.0/685aa/99.7%	1
24577	364	*	1
36878	80	0.0/684aa/99.7%	1
37030	80	0.0/684aa/99.85%	1
37326	80	0.0/685aa/94.59%	1
6430	365	*	1
10796	366	*	1
29775	367	*	1
27726	303	0.0/660aa/74.78%	1
27945	303	0.0/660aa/74.78%	1
27946	303	0.0/660aa/74.78%	1
35040	368	*	1
10875	284	6.63e-163/646aa/40.38%	1
10876	284	6.63e-163/646aa/40.38%	1
21669	305	8.49e-138/726aa/39.41%	1
27831	284	0.0/583aa/42.94%	1
31922	369	*	1
7128	355	0.0/693aa/95.58%	1
7890	305	1.70e-142/722aa/41.08%	1
10174	370	*	1
21807	371	*	1
20082	372	*	1
20083	372	0.0/677aa/100%	1
20776	372	0.0/677aa/100%	1
20777	372	0.0/677aa/100%	1
30097	373	*	1
23779	272	0.0/704aa/66.37%	1
31976	303	0.0/674aa/99.25%	1
32081	355	0.0/658aa/97.48%	1
32641	303	0.0/674aa/99.25%	1
8218	374	*	1
10599	348	2.79e-165/660aa/40.2%	1
23780	272	0.0/654aa/77.74%	1
29912	375	*	1
30401	376	*	1
30402	377	*	1
30403	378	*	1
38298	379	*	1
38299	379	0.0/659aa/97.03%	1
13887	380	*	1
23781	272	0.0/675aa/77.86%	1
13888	380	0.0/673aa/99.85%	1
18639	381	*	1
27900	303	0.0/650aa/75.89%	1
18744	381	0.0/672aa/99.85%	1
26805	382	*	1
6530	383	*	1
36219	384	*	1
17641	22	1.64e-143/546aa/37.18%	1
24378	284	4.16e-170/584aa/39.73%	1
24379	284	4.16e-170/584aa/39.73%	1
32359	385	*	1
32360	385	0.0/667aa/100%	1
32361	385	0.0/667aa/100%	1
6073	383	0.0/640aa/92.49%	1
6529	383	0.0/640aa/92.49%	1
8916	313	2.89e-123/628aa/37.08%	1
29893	386	*	1
35839	387	*	1
11445	388	*	1
11446	389	*	1
23782	272	0.0/664aa/89.12%	1
10877	284	9.09e-167/626aa/41.45%	1
23783	272	0.0/676aa/81.96%	1
23760	390	*	1
32022	80	0.0/635aa/95.44%	1
32023	80	0.0/635aa/95.44%	1
35700	391	*	1
38147	284	7.58e-170/581aa/41.85%	1
23784	272	0.0/680aa/83.35%	1
11467	392	*	1
29776	367	0.0/653aa/100%	1
11823	393	*	1
11468	394	*	1
28313	395	*	1
29933	396	*	1
30113	397	*	1
34809	398	*	1
16860	399	*	1
21867	348	2.24e-144/661aa/40.36%	1
28428	400	*	1
30203	401	*	1
35380	348	1.35e-151/661aa/40.52%	1
38005	284	1.40e-157/565aa/37.96%	1
38300	284	8.87e-155/565aa/37.65%	1
38306	284	1.40e-157/565aa/37.96%	1
10703	348	1.16e-149/614aa/38.39%	1
23761	402	*	1
23762	403	*	1
24299	187	5.15e-172/630aa/41.48%	1
10878	284	1.42e-159/578aa/40.15%	1
27849	135	0.0/640aa/93.95%	1
30112	404	*	1
37741	405	*	1
27829	369	1.06e-173/516aa/77.63%	1
17276	406	*	1
25782	407	*	1
29156	28	1.68e-98/653aa/39.96%	1
23787	272	0.0/635aa/65.73%	1
23788	272	0.0/635aa/65.73%	1
28239	400	0.0/631aa/97.19%	1
6455	408	*	1
11509	409	*	1
28829	23	4.60e-114/449aa/34.32%	1
23506	284	0.0/578aa/46.25%	1
25792	190	1.58e-108/654aa/40.31%	1
10879	284	3.60e-173/579aa/43.19%	1
10880	284	3.60e-173/579aa/43.19%	1
11469	410	*	1
11510	411	*	1
18781	284	8.94e-129/602aa/38.96%	1
30049	412	*	1
8721	284	0.0/586aa/48.27%	1
8729	284	0.0/589aa/47.33%	1
23619	284	0.0/586aa/48.27%	1
27210	284	0.0/589aa/47.33%	1
27715	284	0.0/589aa/47.33%	1
14473	413	*	1
6447	414	*	1
23785	272	6.30e-143/626aa/51.88%	1
28429	400	0.0/631aa/97.16%	1
37911	284	3.05e-176/580aa/44.33%	1
38140	284	6.59e-177/580aa/44.33%	1
38141	284	6.59e-177/580aa/44.33%	1
38142	284	6.59e-177/580aa/44.33%	1
38143	284	6.59e-177/580aa/44.33%	1
10991	415	*	1
10992	415	0.0/634aa/100%	1
18191	416	*	1
22642	417	*	1
37732	418	*	1
8706	284	0.0/569aa/45.02%	1
9618	284	0.0/569aa/44.07%	1
23594	284	0.0/569aa/45.02%	1
23682	284	0.0/569aa/45.02%	1
32324	419	*	1
38464	284	2.50e-153/585aa/40.28%	1
16454	356	3.76e-169/314:177aa/72.62%	1
36364	420	*	1
11470	421	*	1
17904	422	*	1
22920	328	0.0/592aa/53.25%	1
20570	423	*	1
37913	284	5.65e-157/598aa/41.4%	1
38422	284	5.65e-157/598aa/41.4%	1
38423	284	5.65e-157/598aa/41.4%	1
11511	424	*	1
32060	284	0.0/581aa/48.8%	1
32412	284	0.0/581aa/48.8%	1
32413	284	0.0/581aa/48.8%	1
9293	425	*	1
9297	425	0.0/626aa/81.3%	1
35890	426	*	1
8749	383	0.0/625aa/100%	1
24380	284	0.0/583aa/46.72%	1
24381	284	1.70e-169/580aa/41.76%	1
29949	427	*	1
11471	428	*	1
18579	284	9.06e-152/577aa/40.19%	1
18729	284	9.06e-152/577aa/40.19%	1
18730	284	9.06e-152/577aa/40.19%	1
22808	408	0.0/641aa/97.1%	1
18250	284	3.91e-151/576aa/39.93%	1
27308	284	0.0/569aa/46.61%	1
27309	284	0.0/569aa/46.61%	1
27364	284	0.0/569aa/46.61%	1
27612	284	0.0/569aa/46.61%	1
27832	284	0.0/569aa/46.61%	1
31993	284	0.0/578aa/48.06%	1
27470	284	1.28e-176/571aa/43.78%	1
27727	284	1.28e-176/571aa/43.78%	1
9524	358	0.0/536aa/66.34%	1
18595	429	*	1
18847	429	0.0/618aa/100%	1
27546	408	0.0/641aa/81.39%	1
8675	385	0.0/617aa/96.43%	1
17881	6	5.30e-152/594aa/47.16%	1
27196	385	0.0/617aa/96.43%	1
27836	385	0.0/617aa/96.43%	1
27837	385	0.0/617aa/96.43%	1
27838	385	0.0/617aa/96.43%	1
27839	385	0.0/617aa/96.43%	1
27940	385	0.0/617aa/96.43%	1
27941	385	0.0/617aa/96.43%	1
27975	385	0.0/617aa/96.43%	1
27976	385	0.0/617aa/96.43%	1
27977	385	0.0/617aa/96.43%	1
27978	385	0.0/617aa/96.43%	1
28034	385	0.0/617aa/96.43%	1
32009	385	0.0/617aa/100%	1
32139	408	0.0/639aa/80.22%	1
32142	385	0.0/617aa/100%	1
6871	385	6.32e-176/620aa/81%	1
16841	430	*	1
37970	284	1.66e-178/578aa/45.77%	1
6445	385	7.93e-178/619aa/84.55%	1
6496	385	0.0/619aa/85.2%	1
8519	385	1.52e-179/619aa/84.55%	1
22807	431	*	1
23331	385	1.52e-179/619aa/84.55%	1
23628	385	1.52e-179/619aa/84.55%	1
23658	385	1.52e-179/619aa/84.55%	1
24153	284	0.0/586aa/47.8%	1
29190	432	*	1
32644	369	3.59e-147/474aa/77.07%	1
36435	433	*	1
28699	434	*	1
21737	80	0.0/612aa/98.85%	1
28704	28	8.54e-122/537aa/40.03%	1
28705	28	8.54e-122/537aa/40.03%	1
33626	435	*	1
8480	284	0.0/567aa/44.84%	1
18871	436	*	1
27201	284	4.03e-177/567aa/44.02%	1
27805	284	4.16e-180/567aa/44.51%	1
27896	284	4.16e-180/567aa/44.51%	1
36810	80	0.0/608aa/98.03%	1
16126	437	*	1
11710	80	0.0/608aa/99.83%	1
16783	80	0.0/609aa/95.89%	1
16784	80	0.0/609aa/95.89%	1
16785	80	0.0/609aa/95.89%	1
16892	80	0.0/609aa/95.89%	1
16893	80	0.0/609aa/95.89%	1
17905	422	0.0/609aa/99.83%	1
19084	80	0.0/609aa/99.83%	1
23786	272	0.0/628aa/64.69%	1
33586	80	0.0/609aa/95.73%	1
35311	80	0.0/608aa/99.83%	1
37843	80	0.0/609aa/99.83%	1
16764	438	*	1
27919	284	7.37e-178/568aa/45.39%	1
6508	439	*	1
28314	395	2.98e-156/311:235aa/81.51%	1
14472	440	*	1
15291	441	*	1
32236	284	0.0/578aa/48.26%	1
6842	288	0.0/424aa/54.06%	1
6802	442	*	1
11688	58	5.31e-52/593aa/31.44%	1
19653	443	*	1
10961	444	*	1
22875	445	*	1
23302	445	0.0/599aa/100%	1
27603	445	0.0/599aa/100%	1
37747	446	*	1
37842	445	0.0/599aa/94.15%	1
38335	445	0.0/599aa/94.15%	1
8043	447	*	1
21904	43	1.02e-122/585aa/44.98%	1
21727	431	6.35e-72/536aa/30.7%	1
11675	448	*	1
23445	284	0.0/574aa/66.05%	1
37873	284	7.89e-170/584aa/44.87%	1
20702	449	*	1
10915	450	*	1
17611	451	*	1
26757	452	*	1
26758	453	*	1
9294	454	*	1
11447	455	*	1
23272	284	0.0/584aa/67.9%	1
30066	456	*	1
38480	457	*	1
8617	284	0.0/582aa/63.79%	1
11059	458	*	1
11512	459	*	1
14680	264	0.0/658aa/70.21%	1
23377	284	0.0/582aa/63.79%	1
26892	460	*	1
32178	284	0.0/580aa/60.06%	1
8684	284	0.0/582aa/68.64%	1
8714	284	0.0/574aa/54.91%	1
17612	451	0.0/593aa/97.79%	1
17613	451	0.0/593aa/97.79%	1
17649	190	2.57e-83/590aa/36.1%	1
22929	303	4.49e-161/529aa/53.55%	1
27723	284	0.0/574aa/54.91%	1
5475	284	0.0/584aa/68.25%	1
8670	284	0.0/575aa/60.95%	1
8696	284	0.0/580aa/60.27%	1
8755	284	0.0/579aa/60.78%	1
27548	284	0.0/575aa/58.91%	1
27549	284	0.0/579aa/60.78%	1
27971	284	0.0/575aa/58.91%	1
16107	461	*	1
17295	22	1.14e-106/432aa/33.84%	1
18937	462	*	1
18938	462	2.11e-136/405:115aa/88.09%	1
23836	463	*	1
28737	400	0.0/571aa/94.03%	1
29940	464	*	1
8735	284	0.0/529aa/57.5%	1
14899	264	0.0/522aa/65.69%	1
22906	284	0.0/529aa/57.5%	1
23507	284	0.0/529aa/57.5%	1
28688	465	*	1
31920	284	0.0/531aa/53.58%	1
38218	466	*	1
6470	467	*	1
28315	395	8.85e-95/235:316aa/71.86%	1
7449	468	*	1
8858	469	*	1
12561	470	*	1
36135	471	*	1
9292	472	*	1
18939	462	9.76e-134/405:115aa/87.26%	1
28854	473	*	1
27907	408	0.0/596aa/79.13%	1
27956	408	0.0/596aa/79.13%	1
33861	474	*	1
36798	475	*	1
13121	476	*	1
33862	477	*	1
35632	189	1.85e-142/554aa/45.42%	1
37917	478	*	1
26141	479	*	1
24222	6	2.62e-121/517aa/39.68%	1
24544	480	*	1
28478	481	*	1
28738	400	0.0/548aa/94.45%	1
9016	472	0.0/458aa/59.89%	1
17530	482	*	1
8586	483	*	1
11472	484	*	1
18558	485	*	1
23663	486	*	1
19470	487	*	1
22663	488	*	1
23668	303	1.65e-151/529aa/53.49%	1
23669	303	4.99e-152/529aa/53.67%	1
23789	272	0.0/547aa/90.52%	1
28419	309	0.0/454:98aa/96.84%	1
38259	478	0.0/579aa/100%	1
16700	127	1.52e-155/518aa/43.93%	1
38219	466	0.0/515aa/86.29%	1
38220	466	0.0/520aa/85.58%	1
38221	466	0.0/516aa/87.34%	1
38222	466	0.0/520aa/84.53%	1
38223	466	0.0/520aa/86.11%	1
38224	466	0.0/536aa/81.01%	1
38225	466	0.0/520aa/84.53%	1
38226	466	0.0/520aa/85.58%	1
38227	466	0.0/536aa/80.14%	1
38228	466	0.0/520aa/85.06%	1
38229	466	0.0/536aa/79.61%	1
38230	466	0.0/536aa/80.49%	1
38231	466	0.0/536aa/80.14%	1
23245	284	0.0/574aa/66.9%	1
11497	80	0.0/532aa/92.23%	1
15983	489	*	1
18269	490	*	1
21332	489	5.18e-173/526aa/44.97%	1
28381	491	*	1
6899	492	*	1
17472	493	*	1
18149	494	*	1
28231	465	0.0/586aa/99.82%	1
28273	465	0.0/586aa/93.45%	1
29932	495	*	1
30407	496	*	1
36809	497	*	1
16640	127	2.15e-153/535aa/45.03%	1
17906	422	0.0/474aa/82.97%	1
27952	498	*	1
9279	499	*	1
20625	500	*	1
27897	284	2.01e-152/515aa/42.42%	1
38207	501	*	1
38208	502	*	1
20391	503	*	1
27909	284	0.0/556aa/59.92%	1
34680	504	*	1
11669	505	*	1
21333	489	1.78e-173/526aa/45.69%	1
21334	489	1.78e-173/526aa/45.69%	1
21459	489	1.78e-173/526aa/45.69%	1
32592	506	*	1
8676	507	*	1
18944	508	*	1
35116	29	3.77e-85/587aa/45.6%	1
9533	509	*	1
23790	272	0.0/533aa/90.46%	1
23791	272	0.0/533aa/90.28%	1
28476	510	*	1
18150	511	*	1
19515	512	*	1
23670	303	3.11e-144/526aa/53.97%	1
35949	513	*	1
11436	514	*	1
18151	515	*	1
25045	516	*	1
32264	284	0.0/553aa/50.63%	1
35698	513	4.96e-178/548aa/58.87%	1
38232	466	0.0/520aa/84.78%	1
38233	466	0.0/520aa/82.97%	1
38234	466	0.0/516aa/86.77%	1
38235	466	0.0/520aa/83.51%	1
38236	466	0.0/520aa/84.05%	1
38237	466	0.0/520aa/83.33%	1
38238	466	0.0/520aa/82.97%	1
38239	466	0.0/536aa/75.54%	1
38240	466	0.0/536aa/75%	1
38241	466	0.0/536aa/75.54%	1
38242	466	0.0/536aa/75.9%	1
38243	466	0.0/536aa/75%	1
8535	499	3.00e-133/480aa/51.17%	1
9384	499	8.42e-137/480aa/52.81%	1
38153	478	0.0/579aa/99.81%	1
30033	517	*	1
30084	93	2.21e-114/392aa/38.9%	1
32673	135	0.0/544aa/95.09%	1
36994	518	*	1
9584	519	*	1
24144	520	*	1
37042	518	4.10e-140/328:60aa/70.43%	1
8677	521	*	1
28840	522	*	1
37043	518	1.24e-139/328:60aa/70.38%	1
26130	523	*	1
26163	523	0.0/532aa/97.43%	1
30075	524	*	1
6846	288	0.0/426aa/48.8%	1
23052	284	0.0/556aa/68.19%	1
36402	525	*	1
11529	526	*	1
38154	478	0.0/579aa/100%	1
38155	478	0.0/579aa/99.81%	1
34763	527	*	1
37044	518	3.58e-132/328:60aa/70%	1
28316	528	*	1
8011	529	*	1
17739	530	*	1
21294	531	*	1
21295	531	0.0/538aa/100%	1
21296	531	0.0/538aa/100%	1
21297	531	0.0/538aa/100%	1
37817	80	0.0/532aa/94.23%	1
5474	509	0.0/537aa/100%	1
11526	532	*	1
13827	533	*	1
19647	534	*	1
34880	535	*	1
8697	509	0.0/538aa/62.24%	1
11538	509	0.0/538aa/62.24%	1
11623	509	0.0/538aa/62.24%	1
11624	509	0.0/538aa/62.24%	1
11625	509	0.0/538aa/62.61%	1
24887	536	*	1
32988	80	0.0/533aa/94.39%	1
35015	0	8.08e-159/524aa/49.9%	1
37045	518	5.50e-143/328:60aa/72.52%	1